<VTKFile type="UnstructuredGrid" version="0.1" byte_order="BigEndian">
  <UnstructuredGrid>
    <Piece NumberOfPoints="17201" NumberOfCells="0">
      <Points>
        <DataArray name="Position" type="Float32" NumberOfComponents="3" format="ascii">
          -124.621 -88.2262 0 -124.633 -89.4382 0 -123.786 -88.0907 0 -123.782 -89.5562 0 -124.073 -88.8436 0 -123.275 -88.7622 0 -122.896 -89.5698 0 -122.645 -88.1618 0 -123.22 -87.5258 0 -123.106 -85.8107 0 -123.815 -85.3863 0 -124.602 -85.7813 0 -123.704 -86.4017 0 -124.493 -86.572 0 -122.887 -86.6757 0 -123.898 -87.1723 0 -124.616 -87.4392 0 -122.885 -85.0386 0 -124.576 -85.0053 0 -122.945 -83.3038 0 -123.834 -82.8914 0 -124.595 -83.2636 0 -123.901 -83.7041 0 -123.133 -84.1224 0 -124.629 -84.0897 0 -123.909 -84.5462 0 -124.622 -80.66 0 -122.847 -80.649 0 -123.93 -81.0776 0 -123.188 -81.4275 0 -124.576 -81.5465 0 -123.886 -81.9946 0 -123.794 -80.221 0 -124.541 -82.453 0 -123.196 -82.4212 0 -122.542 -81.8965 0 -124.529 -78.1112 0 -123.086 -77.9374 0 -123.745 -78.4307 0 -123.083 -78.9578 0 -124.561 -78.98 0 -123.818 -79.4032 0 -123.067 -79.8483 0 -124.561 -79.887 0 -123.817 -77.5841 0 -123.011 -75.4311 0 -124.567 -75.3084 0 -123.752 -75.7474 0 -124.621 -76.3143 0 -123.042 -76.2713 0 -123.767 -76.6021 0 -124.549 -77.2451 0 -123.101 -77.1328 0 -123.84 -73.1022 0 -124.609 -73.5377 0 -122.997 -73.5588 0 -123.736 -74.0557 0 -124.521 -74.4172 0 -122.914 -74.4258 0 -122.978 -72.7521 0 -124.569 -72.6794 0 -123.757 -74.8989 0 -123.765 -70.3859 0 -122.861 -70.8115 0 -124.53 -70.8356 0 -123.833 -71.2894 0 -124.51 -71.8458 0 -123.097 -71.8687 0 -123.791 -72.3072 0 -124.495 -70.0404 0 -122.957 -70.0288 0 -124.52 -68.2449 0 -122.994 -68.0448 0 -123.723 -68.5468 0 -122.983 -68.8392 0 -124.488 -69.1526 0 -123.676 -69.4836 0 -123.831 -67.662 0 -124.557 -65.1644 0 -123.198 -66.2131 0 -124.354 -65.9869 0 -123.887 -66.6999 0 -124.588 -67.0554 0 -122.907 -67.0305 0 -123.765 -65.4573 0 -122.814 -65.1523 0 -123.714 -62.7545 0 -124.212 -63.3993 0 -122.835 -62.5145 0 -123.288 -63.5346 0 -124.569 -64.2902 0 -123.585 -64.425 0 -124.498 -62.5678 0 -122.704 -64.244 0 -123.648 -60.9804 0 -124.528 -60.7765 0 -124.378 -61.7177 0 -123.026 -60.0262 0 -123.522 -61.8991 0 -123.905 -60.1641 0 -122.923 -61.4064 0 -122.509 -60.6527 0 -123.105 -57.9013 0 -123.76 -58.3806 0 -124.525 -57.8134 0 -122.985 -58.7325 0 -124.591 -58.6401 0 -123.699 -59.2085 0 -124.566 -59.5279 0 -124.305 -55.9927 0 -123.004 -56.1447 0 -123.61 -55.3833 0 -122.722 -56.9841 0 -124.583 -56.9218 0 -123.707 -57.1198 0 -122.827 -55.3161 0 -124.445 -53.7775 0 -123.543 -53.6564 0 -122.947 -52.9853 0 -123.527 -54.5602 0 -122.6 -54.3492 0 -124.401 -54.7423 0 -123.716 -52.5623 0 -124.589 -52.7297 0 -123.525 -51.1231 0 -124.369 -51.6904 0 -124.6 -50.6317 0 -122.619 -50.5899 0 -122.713 -51.4847 0 -123.643 -50.2038 0 -124.288 -48.4094 0 -123.498 -48.2085 0 -124.521 -49.7284 0 -123.875 -49.236 0 -122.592 -49.6147 0 -124.074 -47.6014 0 -122.51 -47.575 0 -124.224 -46.7158 0 -124.175 -45.6935 0 -123.255 -46.1029 0 -123.304 -47.1707 0 -123.066 -45.0197 0 -124.016 -44.5052 0 -124.411 -43.52 0 -123.661 -43.0375 0 -122.944 -44.1422 0 -124.56 -42.6177 0 -122.521 -43.0684 0 -124.025 -40.9209 0 -123.754 -42.0341 0 -123.276 -40.2239 0 -123.022 -41.1296 0 -122.863 -42.2744 0 -124.553 -38.5601 0 -123.571 -39.342 0 -123.512 -38.4179 0 -124.528 -39.6122 0 -122.646 -38.9232 0 -124.083 -36.5333 0 -123.277 -37.0433 0 -123.571 -35.813 0 -122.539 -36.0328 0 -123.631 -32.9725 0 -124.399 -30.4693 0 -122.011 -89.6229 0 -121.789 -88.0951 0 -121.524 -88.9366 0 -121.008 -88.1529 0 -121.085 -89.6122 0 -120.62 -88.8084 0 -122.361 -88.8565 0 -120.096 -88.0889 0 -120.206 -89.5941 0 -121.492 -85.8548 0 -121.985 -86.5852 0 -121.135 -86.5882 0 -120.689 -85.8555 0 -122.425 -87.3246 0 -122.052 -85.0444 0 -122.279 -85.7995 0 -120.565 -87.4385 0 -121.541 -87.2991 0 -121.094 -85.0927 0 -120.197 -86.5656 0 -121.56 -84.3121 0 -121.161 -83.5927 0 -120.715 -84.2936 0 -120.668 -82.8382 0 -121.566 -82.8132 0 -120.261 -83.534 0 -122.357 -82.6949 0 -122.356 -84.3024 0 -122.179 -83.5376 0 -120.335 -84.9542 0 -120.576 -81.195 0 -121.442 -81.0736 0 -120.931 -80.4736 0 -120.998 -82.0519 0 -121.9 -80.3181 0 -121.758 -81.8064 0 -122.24 -81.1182 0 -120.106 -80.4712 0 -120.218 -82.1697 0 -121.677 -77.921 0 -120.882 -78.9483 0 -121.757 -78.8062 0 -121.422 -79.6054 0 -120.951 -78.0815 0 -120.526 -79.6897 0 -122.394 -79.4049 0 -122.439 -78.3876 0 -120.022 -78.1286 0 -120.033 -79.0231 0 -121.437 -76.2633 0 -121.356 -75.4171 0 -120.637 -76.6344 0 -122.189 -76.6833 0 -121.397 -77.179 0 -120.53 -75.7317 0 -122.202 -75.8678 0 -120.454 -77.412 0 -122.315 -77.4783 0 -122.216 -75.0174 0 -120.789 -73.0969 0 -121.466 -73.6762 0 -122.175 -73.9594 0 -120.708 -74.0077 0 -121.379 -74.5185 0 -122.218 -73.1623 0 -121.515 -72.7109 0 -120.601 -74.815 0 -121.605 -70.8989 0 -120.656 -70.3593 0 -122.307 -71.4086 0 -121.546 -71.9037 0 -120.788 -71.217 0 -122.156 -70.3977 0 -122.264 -72.2609 0 -120.789 -72.2166 0 -120.03 -71.8203 0 -121.353 -68.2181 0 -120.592 -67.6994 0 -121.462 -69.0962 0 -120.599 -68.5258 0 -122.384 -69.3902 0 -120.717 -69.4127 0 -122.174 -68.5625 0 -122.23 -67.6775 0 -121.482 -69.883 0 -120.041 -69.8741 0 -120.514 -65.5783 0 -121.491 -65.863 0 -120.046 -66.3718 0 -120.981 -66.4536 0 -121.989 -66.6539 0 -121.326 -67.2802 0 -121.093 -65.0434 0 -122.313 -65.8496 0 -121.797 -64.1692 0 -120.903 -64.1908 0 -122.218 -63.2236 0 -121.394 -63.3184 0 -120.442 -63.0441 0 -122.102 -64.9819 0 -120.105 -63.957 0 -121.626 -60.6243 0 -121.176 -61.423 0 -120.944 -60.1257 0 -120.458 -60.9705 0 -120.443 -61.8502 0 -122.054 -61.5567 0 -121.037 -62.4954 0 -121.865 -62.4545 0 -121.132 -58.3557 0 -122.068 -58.1365 0 -121.811 -58.9415 0 -121.021 -59.2455 0 -120.189 -59.4134 0 -120.261 -58.5482 0 -121.684 -59.8006 0 -121.222 -57.5581 0 -122.493 -59.3811 0 -120.244 -57.6037 0 -122.208 -56.1124 0 -121.203 -55.8653 0 -120.879 -56.7297 0 -121.913 -56.9972 0 -120.349 -55.9696 0 -120.064 -55.1676 0 -121.479 -53.0964 0 -121.516 -54.2303 0 -120.813 -53.641 0 -120.649 -52.7752 0 -120.729 -54.6725 0 -122.297 -53.5502 0 -121.878 -54.9923 0 -120.051 -54.1376 0 -120.997 -50.6204 0 -120.688 -51.6462 0 -120.058 -50.8324 0 -121.81 -51.1864 0 -121.386 -52.202 0 -121.842 -50.3063 0 -122.36 -52.3132 0 -120.339 -48.9818 0 -121.5 -48.1124 0 -121.671 -49.5159 0 -120.837 -49.6973 0 -120.641 -47.5601 0 -122.47 -48.6013 0 -121.312 -45.9309 0 -120.444 -46.4142 0 -121.427 -47.0084 0 -122.475 -45.6799 0 -120.223 -45.5017 0 -121.942 -45.0298 0 -122.443 -46.6447 0 -121.682 -44.0742 0 -120.865 -44.7468 0 -121.378 -43.2901 0 -120.68 -44.009 0 -120.693 -42.5287 0 -121.79 -40.8441 0 -120.914 -40.3874 0 -121.767 -42.253 0 -122.04 -40.033 0 -121.544 -38.0354 0 -121.231 -39.0682 0 -120.257 -38.9312 0 -120.677 -37.5882 0 -122.424 -37.9823 0 -121.899 -37.0915 0 -120.387 -35.8667 0 -121.006 -35.1268 0 -120.178 -32.705 0 -121.685 -33.9487 0 -119.309 -88.1156 0 -119.312 -89.5823 0 -118.939 -88.7972 0 -118.439 -88.1183 0 -118.45 -89.5549 0 -118.007 -88.8622 0 -119.735 -88.8848 0 -117.615 -88.1153 0 -117.575 -89.5389 0 -119.383 -86.415 0 -118.871 -85.7527 0 -118.532 -86.5472 0 -117.991 -85.8625 0 -117.95 -87.2996 0 -119.862 -85.734 0 -119.637 -87.2731 0 -119.338 -85.0614 0 -117.528 -85.1044 0 -118.77 -87.2624 0 -117.629 -86.5756 0 -119.363 -83.5709 0 -118.84 -82.9393 0 -118.923 -84.2021 0 -118.325 -83.5342 0 -117.883 -82.7818 0 -117.873 -84.309 0 -119.81 -84.256 0 -119.76 -82.8848 0 -118.506 -84.9652 0 -119.275 -80.7243 0 -119.403 -82.1215 0 -118.953 -81.4344 0 -118.36 -80.626 0 -118.485 -82.1547 0 -118.128 -81.3869 0 -119.79 -81.3415 0 -117.539 -81.9878 0 -117.611 -80.6293 0 -117.993 -78.3019 0 -118.351 -78.9913 0 -118.859 -78.3205 0 -119.226 -79.0729 0 -118 -79.7684 0 -119.605 -79.7761 0 -118.773 -79.8561 0 -119.328 -77.5958 0 -118.438 -77.5711 0 -117.521 -79.0264 0 -117.635 -77.5347 0 -118.586 -75.9906 0 -118.063 -76.7053 0 -118.936 -76.8756 0 -119.546 -76.0481 0 -117.721 -75.8815 0 -119.749 -76.85 0 -118.131 -75.1949 0 -119.781 -75.2707 0 -118.942 -75.3139 0 -119.147 -73.9935 0 -119.902 -74.4074 0 -118.537 -74.4934 0 -118.425 -73.5582 0 -117.557 -74.2524 0 -117.867 -72.8466 0 -119.906 -72.712 0 -118.961 -72.959 0 -119.91 -73.5755 0 -118.987 -71.1292 0 -118.164 -71.3586 0 -119.971 -71.0051 0 -118.362 -72.2135 0 -119.202 -72.0511 0 -118.623 -70.4249 0 -119.41 -70.3829 0 -117.758 -70.5993 0 -117.582 -71.9939 0 -119.028 -68.5767 0 -117.99 -68.7206 0 -119.056 -69.6184 0 -119.798 -69.056 0 -119.809 -68.1287 0 -118.283 -67.8719 0 -119.092 -67.7113 0 -118.127 -69.5037 0 -117.966 -65.4623 0 -117.917 -66.3438 0 -118.743 -66.0043 0 -117.558 -67.3831 0 -118.44 -66.9938 0 -119.204 -66.6633 0 -118.941 -65.1398 0 -119.577 -65.6295 0 -119.89 -67.2167 0 -118.92 -62.7185 0 -119.343 -63.4235 0 -119.109 -64.3649 0 -118.476 -63.5983 0 -118.076 -64.5887 0 -117.767 -63.0946 0 -119.93 -64.8129 0 -117.518 -63.8715 0 -117.924 -60.7122 0 -118.811 -60.9665 0 -118.136 -61.4406 0 -119.656 -61.0976 0 -119.017 -61.8013 0 -119.786 -60.224 0 -119.692 -62.3204 0 -118.242 -62.3334 0 -117.992 -58.1289 0 -119.363 -58.3405 0 -119.391 -59.248 0 -118.598 -58.651 0 -117.903 -59.8498 0 -117.513 -58.9883 0 -118.746 -59.9987 0 -118.123 -56.3148 0 -118.391 -55.477 0 -119.385 -55.765 0 -119.164 -56.586 0 -117.636 -56.988 0 -119.933 -56.6193 0 -119.249 -57.4927 0 -118.419 -57.4704 0 -117.531 -55.6574 0 -118.324 -53.2045 0 -119.963 -53.3585 0 -119.14 -53.3883 0 -117.763 -53.791 0 -118.645 -54.0998 0 -119.104 -54.9412 0 -117.801 -54.6987 0 -118.548 -51.4183 0 -117.588 -50.968 0 -119.488 -51.592 0 -117.899 -52.0914 0 -119.004 -50.6535 0 -118.069 -50.2423 0 -118.894 -52.4369 0 -119.977 -52.281 0 -119.964 -50.0865 0 -118.344 -48.5121 0 -119.033 -47.9496 0 -118.807 -49.5518 0 -119.449 -48.9808 0 -119.947 -48.1815 0 -117.552 -49.5144 0 -118.23 -45.882 0 -119.212 -45.9446 0 -119.055 -46.7661 0 -119.908 -47.2536 0 -118.087 -46.948 0 -118.793 -45.0953 0 -118.616 -43.9714 0 -119.562 -43.3815 0 -118.606 -43.0567 0 -119.772 -
[...]
      <PointData Vectors="vector">
        <DataArray type="Float32" Name="Velocity" NumberOfComponents="3" format="ascii">
          -4.10265 10.6427 0 -1.79549 3.84005 0 -1.42385 -4.73176 0 2.41784 -2.4547 0 1.97547 6.22337 0 -3.68582 -4.28713 0 -0.00790424 -8.30921 0 1.11102 -10.6182 0 2.69136 2.54469 0 -6.32975 3.00663 0 -6.61498 -1.66527 0 -3.34808 -3.39979 0 -0.805714 2.4586 0 3.26337 0.227728 0 -3.42217 -4.0542 0 0.496093 1.38309 0 3.6997 2.46598 0 -1.65514 -0.952551 0 -2.78533 6.41522 0 5.87236 4.75585 0 -5.21041 3.07647 0 -0.436606 -2.80124 0 -4.34809 -4.00673 0 2.65379 3.90111 0 -1.9103 -5.75899 0 3.72876 -8.12713 0 -5.00004 -4.85121 0 -5.30883 -1.95669 0 -7.34669 4.32267 0 8.14259 7.81278 0 3.63501 3.22004 0 -3.78756 2.9662 0 -10.0383 -2.05216 0 0.586253 0.579884 0 3.04892 1.56877 0 -3.38965 -5.03859 0 -0.629611 -3.49422 0 5.08668 -0.0637646 0 -1.23342 -5.58909 0 1.50939 5.92698 0 6.7245 -3.12263 0 -1.84293 2.01247 0 3.22259 -1.34066 0 -10.0589 0.790745 0 5.17612 -6.96651 0 -2.72976 -1.26447 0 -6.83847 3.08281 0 -2.10278 7.5528 0 11.3396 -4.67337 0 3.31565 -1.70911 0 -0.629716 -2.42134 0 -2.90029 0.534483 0 -4.58102 0.333045 0 0.19661 10.8048 0 -4.43058 0.13965 0 -3.99534 -8.02206 0 -0.37355 3.27909 0 -5.04419 7.22079 0 3.04495 0.844014 0 -6.36945 4.04995 0 -0.52334 5.23874 0 5.62931 -0.589802 0 3.02467 0.324713 0 -4.57825 3.16107 0 -3.30592 -4.91869 0 -3.50574 0.606099 0 -3.17795 -7.27182 0 2.72688 -3.47052 0 -4.66683 -1.26221 0 -4.01057 -1.08306 0 -8.30484 -5.1569 0 -0.490823 -4.78792 0 -2.19624 -1.93866 0 5.52966 4.4324 0 1.32093 3.22378 0 11.592 -6.33998 0 -6.52333 -6.17446 0 1.42564 1.12539 0 7.6882 3.55194 0 -2.11883 5.49472 0 -10.1438 3.74525 0 0.295721 2.60543 0 2.08511 7.99678 0 3.28133 8.03125 0 5.30788 -9.46743 0 5.64821 -7.93302 0 -1.31436 2.12308 0 -4.41737 -3.10807 0 -2.79455 2.50567 0 -5.07583 -0.161505 0 -2.51961 -1.65934 0 3.15329 2.43097 0 4.98314 3.22354 0 -4.60059 0.891621 0 -6.20404 -0.52817 0 5.32521 8.23118 0 1.47139 -0.299012 0 -0.351376 -2.22666 0 -2.26192 6.06742 0 0.87961 -3.11513 0 -2.59208 -3.83057 0 -6.92934 3.02408 0 7.70468 0.72577 0 -2.24807 -0.140441 0 6.59414 7.46732 0 -0.820824 3.87809 0 1.95478 5.71554 0 -4.94166 -0.339941 0 -1.18224 -1.24594 0 10.1503 -4.88384 0 3.54092 1.7749 0 -6.60273 -0.590444 0 0.434048 3.84015 0 1.63052 -0.353084 0 -2.97515 -1.7564 0 -2.90434 7.44381 0 0.749284 -5.91223 0 0.655445 2.662 0 -5.0053 1.04157 0 1.02167 -1.09162 0 9.67027 5.19681 0 -1.55453 -2.61488 0 2.56909 3.62694 0 2.05261 -3.50574 0 -3.21584 -2.94243 0 -4.38489 -6.77871 0 2.20916 1.05457 0 2.32428 4.98881 0 1.18551 3.11569 0 8.14401 -7.38035 0 -7.34151 -0.136001 0 -3.26245 0.968873 0 -3.42571 4.88482 0 4.8639 -7.48445 0 -1.78392 4.74615 0 -3.45822 -1.0355 0 -4.78892 -5.19422 0 -2.75614 -4.90499 0 -4.22033 -6.07916 0 -9.58319 -8.07929 0 -2.74191 -1.11271 0 2.37236 -6.16168 0 2.36797 0.660727 0 -0.234828 -1.58 0 0.457935 1.31147 0 -6.92161 0.337755 0 -6.99777 -2.49106 0 -2.82349 0.406129 0 3.3537 -2.53933 0 -0.499254 1.68388 0 2.96682 6.12681 0 6.05287 10.0352 0 0.777166 2.47569 0 -7.26714 4.02104 0 4.02821 -1.41186 0 4.41224 5.15218 0 2.04 -1.73124 0 -4.16759 5.17717 0 7.22586 -3.15515 0 -5.03822 -1.46886 0 -7.04714 2.0825 0 -4.32187 -3.36275 0 -13.0574 2.69033 0 2.96045 2.22514 0 -1.18633 3.51505 0 3.61126 -1.57277 0 -2.40701 -7.24843 0 -1.10016 -6.54321 0 -9.35038 -0.103743 0 -0.515782 1.46186 0 -1.01811 -4.33363 0 -7.24458 1.47288 0 6.97647 3.73586 0 4.32324 -3.01873 0 3.79702 2.40828 0 1.5565 1.11538 0 -4.23517 5.37095 0 -4.70212 -7.67917 0 3.16152 0.498595 0 -3.78575 3.68174 0 -1.18514 3.11874 0 1.99405 3.05731 0 -1.82487 1.58261 0 1.33114 8.2733 0 -3.83066 2.36942 0 -0.256937 -0.866047 0 0.822675 3.9187 0 2.71625 1.50273 0 3.31306 -5.8044 0 7.86632 1.79428 0 2.43193 6.02992 0 -8.47607 -8.00055 0 5.77186 0.54775 0 3.87063 3.01402 0 2.63235 3.53347 0 -6.87189 3.27327 0 -2.28541 0.886573 0 -4.93457 7.09519 0 0.607145 -5.19355 0 1.52793 0.160405 0 0.302926 -2.0441 0 3.14905 2.25476 0 2.91788 -1.1772 0 -1.93843 -8.84873 0 -6.46782 2.14648 0 3.36894 -2.1433 0 -6.62609 -6.76913 0 5.7752 -0.708723 0 6.85634 5.93815 0 -5.7305 5.16504 0 -2.56878 -4.14388 0 0.816668 -3.49765 0 -4.62591 -6.11327 0 -0.63138 -2.68806 0 -0.614178 1.21886 0 4.60362 -4.61452 0 -10.68 -5.68779 0 0.940257 -10.1336 0 0.132522 2.88288 0 1.59191 0.454083 0 -5.11382 4.26899 0 0.12276 -4.34731 0 3.94565 -7.29218 0 5.13283 7.96506 0 10.3408 -8.02854 0 4.40316 -5.43724 0 -7.69255 -6.2135 0 10.5622 2.03726 0 -4.93286 -5.32919 0 2.85601 -2.89912 0 -2.22992 11.1172 0 4.68816 -3.86569 0 -7.17475 1.62382 0 -0.776632 4.56099 0 0.059085 -4.15491 0 -3.03714 -4.23764 0 4.03561 3.68403 0 -5.60327 0.805834 0 -4.36011 -5.29656 0 -4.19111 3.20625 0 -2.89307 9.74301 0 4.28856 1.41224 0 -0.288083 6.30978 0 0.369982 1.72547 0 1.70019 0.564625 0 4.2672 -3.26884 0 4.84124 1.8837 0 3.11609 2.35463 0 3.2777 -10.8988 0 -0.177762 3.25285 0 -3.87652 -0.720331 0 2.43453 -1.69828 0 -3.78696 6.40165 0 8.72175 1.54052 0 -3.65802 0.9495 0 -7.44576 -7.27591 0 2.24742 5.14306 0 0.843184 -2.20604 0 0.037934 -1.71013 0 1.94788 6.73538 0 -0.11911 6.34291 0 -0.883744 -3.30076 0 -7.26169 2.14577 0 3.14742 -5.0524 0 -4.3228 9.28137 0 -4.08594 -1.04637 0 2.24787 8.30606 0 10.3174 -2.17766 0 4.67612 2.46882 0 5.12181 1.20884 0 4.64185 14.2185 0 2.87032 -2.18487 0 4.01436 -3.5993 0 8.1046 -0.436131 0 -3.80191 -0.530118 0 -2.77641 -1.13628 0 -5.60904 -6.82739 0 -2.26717 0.243768 0 -1.9697 -4.18624 0 -1.95685 -0.629675 0 3.08582 -1.62929 0 -0.212361 -0.246984 0 -6.03375 -8.9689 0 -1.06215 0.923717 0 0.426938 -0.105799 0 12.7335 -4.94538 0 -3.27406 -0.44594 0 -12.0592 5.13849 0 -1.09402 3.18076 0 -0.246126 2.80443 0 1.40858 -0.619375 0 -0.517667 7.68234 0 -9.85195 -1.68122 0 2.20679 -11.1925 0 -0.54971 -6.22331 0 -2.15088 -3.44946 0 -2.25086 0.620757 0 -3.9414 2.73885 0 0.686736 6.13366 0 3.5915 -3.87326 0 -2.18302 -6.43232 0 -0.174532 3.50387 0 -7.96939 7.21832 0 -3.19123 9.12254 0 -2.67275 -0.37443 0 0.877933 -5.94435 0 10.7759 -6.79741 0 0.43687 2.80868 0 10.028 -0.0551149 0 4.13106 -0.698389 0 -8.14822 0.115502 0 -1.08916 3.91582 0 10.9855 -13.3553 0 0.862281 2.95999 0 -2.65363 -2.71903 0 5.87762 4.27864 0 6.70428 -5.66587 0 3.52058 -2.33312 0 -3.93378 -3.14083 0 -6.16051 11.9568 0 -1.84334 -8.43845 0 1.54218 -5.66065 0 2.48898 -1.76109 0 0.272917 -3.28947 0 3.25462 -5.78803 0 -7.76375 0.0591176 0 -4.85931 -5.27033 0 -0.766303 6.77182 0 4.33616 8.30831 0 2.79767 5.44705 0 -1.11964 -9.65872 0 -8.77188 -5.12802 0 8.60461 -0.873629 0 2.4508 -13.2676 0 6.35073 2.40141 0 -3.66357 -6.64875 0 -6.06012 -0.35165 0 1.34238 -14.9025 0 7.03289 1.19184 0 -2.63444 -0.536589 0 -0.988747 1.0406 0 3.61618 -6.07794 0 -1.43387 -0.123164 0 2.95794 4.72595 0 -8.37391 -1.77917 0 -5.03344 3.04236 0 2.07759 1.73618 0 3.77468 5.83184 0 -2.16458 5.8536 0 7.11008 1.66941 0 0.256697 -6.9872 0 -3.70302 -5.12725 0 5.17568 -1.03348 0 -1.31562 4.12883 0 7.84376 -5.76716 0 -5.4439 4.62118 0 3.81405 3.2386 0 2.2374 4.75302 0 8.21653 5.17639 0 -6.20413 2.54534 0 1.64906 -3.53497 0 3.82069 4.19634 0 -2.29372 9.19709 0 4.15562 -5.60574 0 -4.00535 1.35714 0 -8.37611 0.0333477 0 -4.15252 1.03477 0 2.05192 -3.23325 0 -5.34584 -0.249328 0 3.0566 -1.21758 0 -4.1989 -3.06096 0 -3.26127 -1.60645 0 -2.54295 -6.09826 0 -5.04705 5.65006 0 -3.99181 -4.0462 0 -8.65654 -5.87892 0 -3.66237 2.29065 0 4.23283 -2.65421 0 -1.14567 2.16495 0 7.27765 -0.0609046 0 -2.4507 4.73533 0 5.394 0.849024 0 1.89675 0.347535 0 -1.7531 -11.4021 0 2.05441 -5.42663 0 2.7745 -2.13611 0 3.73558 2.81228 0 -3.89028 0.14375 0 -0.00277526 -2.84788 0 2.28524 -7.72663 0 -1.52114 -2.24325 0 -4.92822 3.71868 0 -6.59874 -4.47237 0 0.326476 -5.28817 0 -3.05103 -4.00705 0 -10.405 -10.4955 0 -6.1199 0.395799 0 2.61074 -2.39678 0 7.72734 -1.25624 0 -3.94929 5.76367 0 -1.89871 -0.359706 0 -5.8256 -9.16688 0 0.150425 -0.598644 0 2.10288 -3.05064 0 -0.76364 -6.47949 0 -4.41778 2.87042 0 -3.83936 2.11877 0 3.6311 -2.84262 0 -3.07704 10.7977 0 0.0116679 0.74106 0 -4.61543 1.55787 0 -5.81534 13.5992 0 -4.91915 1.88558 0 3.53398 -0.611321 0 -0.548975 7.03927 0 -5.34178 -0.322542 0 1.74598 0.0265359 0 -0.843135 -0.202357 0 3.40276 1.73263 0 0.954971 10.4068 0 -0.150658 1.93671 0 5.91916 2.6598 0 -1.50641 0.924621 0 0.225526 3.73674 0 -5.28228 6.60728 0 4.58239 4.5827 0 3.81307 -4.18329 0 -6.2862 0.986251 0 8.66294 -1.52895 0 3.47237 -6.4499 0 -2.6338 0.0137742 0 -0.104512 4.70908 0 3.79009 -4.8558 0 3.27362 -5.2261 0 -0.0164593 -2.44835 0 4.71302 8.69041 0 -7.49975 0.042508 0 2.51355 3.93733 0 1.92332 -0.92753 0 -1.53817 1.74431 0 -5.23773 0.549465 0 2.98541 5.69104 0 6.84754 5.51713 0 4.98644 -8.19573 0 5.13713 -1.06485 0 -8.46472 5.70114 0 1.39217 0.314032 0 2.71128 -0.265427 0 4.96849 -0.770376 0 -9.28786 3.85465 0 -4.65077 -10.7506 0 -8.10595 5.10554 0 3.24128 0.655351 0 6.98528 -0.669748 0 2.41068 3.90929 0 0.0256495 5.01893 0 4.99201 10.2426 0 -0.651332 -1.17871 0 -0.996473 -4.63988 0 -3.31876 -0.00601525 0 -2.51812 -2.47839 0 -4.99262 -5.40483 0 -4.11245 -4.4349 0 3.6524 1.67735 0 -2.47024 1.02947 0 -0.922835 1.84058 0 5.2049 0.0619828 0 -4.19269 -1.57479 0 -3.93551 -1.66815 0 -0.80641 2.05699 0 0.675193 -4.32227 0 3.25648 -1.15569 0 2.6824 0.8064 0 0.257039 3.54609 0 -5.52977 1.16305 0 -0.918168 -5.76704 0 -3.61529 -5.37866 0 8.29764 -3.27636 0 -1.53231 0.378508 0 2.63407 -5.06986 0 1.37194 -0.148173 0 3.15929 3.50968 0 -11.8936 1.51691 0 -2.00189 4.85203 0 -1.86485 -1.04848 0 -3.95851 -1.02086 0 -1.29079 0.869567 0 -6.50106 -2.79379 0 8.26542 -4.74531 0 6.85643 0.472803 0 1.92751 -0.294839 0 0.304464 -5.96462 0 0.177541 -0.20773 0 0.171086 3.32377 0 2.82742 8.47297 0 -3.50757 2.40837 0 6.16813 0.0326602 0 1.18442 5.16092 0 -11.2294 -2.40958 0 -4.29043 5.52443 0 3.72266 -0.89873 0 6.56576 -5.99534 0 -3.11653 5.0533 0 4.46511 1.02963 0 -0.875513 -2.67465 0 0.0791435 -1.88041 0 2.326 -3.253 0 1.04727 -0.966178 0 2.69372 1.00269 0 2.40939 -1.79226 0 -2.1808 -2.50827 0 5.67601 3.60775 0 0.794262 7.72768 0 3.56302 -3.43079 0 3.71313 9.24924 0 6.64645 7.97746 0 1.73003 -5.52741 0 -2.95614 2.038 0 -5.38877 -1.57498 0 1.36386 -1.11816 0 -1.92869 -0.191914 0 1.04428 6.29938 0 6.50433 -0.373694 0 -6.49255 -3.45171 0 -6.84526 3.78598 0 5.83133 -8.11981 0 1.82285 -1.21362 0 -7.00256 -4.36448 0 -8.99278 2.09868 0 0.386465 -4.1105 0 1.98491 4.58881 0 5.31332 2.89151 0 -4.95706 2.97114 0 4.06989 -8.06793 0 -6.48271 -5.65037 0 4.88446 -1.26892 0 -1.30388 4.11206 0 0.306464 -4.23958 0 3.72538 -3.61675 0 3.11751 -1.71023 0 -8.0882 -9.74736 0 -5.10293 3.36921 0 -5.65622 -0.176203 0 -1.91079 2.48522 0 9.15867 1.22684 0 -4.75161 0.729817 0 -4.37549 -0.924131 0 -3.23381 3.99625 0 -1.17607 -3.41723 0 -2.26533 0.982862 0 0.942187 1.1852 0 -2.47733 3.50836 0 -5.88459 -5.34527 0 -7.62022 -0.658751 0 -4.10009 2.30653 0 -5.56945 -1.20738 0 3.78797 2.75022 0 -0.860896 -5.2193 0 6.12374 5.01136 0 4.57057 1.97079 0 -1.59814 -0.545179 0 3.54848 4.27753 0 -0.530796 5.64961 0 -3.86507 -0.402865 0 0.958086 0.731704 0 0.464771 -0.195116 0 1.67766 1.20056 0 -7.24796 0.584082 0 -0.781599 -6.30806 0 0.884501 -5.63729 0 1.57125 -2.4212 0 -4.62182 5.23983 0 0.398449 -4.35637 0 -6.42631 -5.83444 0 -2.69563 2.19035 0 -0.85375 -2.03426 0 -2.73504 -1.34895 0 -0.801934 5.41103 0 -0.682349 3.85105 0 -7.3039 2.1178 0 -2.08477 0.682762 0 1.91393 -0.0214073 0 -1.60508 -6.53159 0 1.10148 4.5827 0 10.1311 4.0944 0 -5.45808 2.36368 0 6.94005 1.33627 0 4.84839 7.79376 0 2.66781 -7.70573 0 -7.13432 0.191369 0 -7.10061 -2.09424 0 -4.39706 -0.0322099 0 9.09374 -8.52347 0 4.16281 3.67053 0 -5.6636 5.85275 0 1.46803 0.446749 0 4.81964 -3.25 0 -6.69287 -2.26546 0 4.78489 -4.34461 0 -0.243715 10.4554 0 -0.585768 -0.295718 0 4.40708 0.653577 0 2.9257 3.14667 0 -3.21939 3.50684 0 3.97221 -2.87174 0 -3.23351 -1.40568 0 -4.1768 -0.372697 0 -3.33398 0.707007 0 -2.37632 6.77164 0 1.10197 -5.50935 0 2.75326 -4.47136 0 1.21525 1.56352 0 -0.0360356 0.830728 0 1.33012 7.35705 0 4.48849 -4.94481 0 0.322714 3.33856 0 7.48389 -10.931 0 2.12199 0.690945 0 -0.934714 5.06304 0 3.45504 1.85856 0 0.057114 1.61663 0 -2.8541 5.33526 0 -2.23555 -4.2723 0 2.76248 -0.895123 0 -7.08281 -4.12102 0 0.038471 7.38453 0 0.481196 -3.33607 0 -0.393084 -2.27122 0 -0.792413 3.7083 0 3.53921 -2.16282 0 -0.236265 -0.223023 0 0.733621 2.55419 0 15.6283 -0.0610186 0 4.71809 -3.05227 0 3.74889 -5.61633 0 4.47296 1.83529 0 -1.1585 0.134122 0 4.3979 -9.85076 0 1.35219 0.756421 0 9.01257 -3.82871 0 1.29675 2.49575 0 1.24564 -4.23606 0 7.67612 -2.62337 0 -1.02132 5.78514 0 7.71409 9.18144 0 2.79274 0.687051 0 0.431033 -7.08756 0 -5.21667 4.28923 0 0.629537 4.46131 0 -5.89331 4.36217 0 2.98667 2.03612 0 5.48618 -7.1929 0 0.858984 9.22353 0 -1.60006 11.0933 0 4.20509 -4.65018 0 -2.99277 -1.27846 0 5.37564 -1.68464 0 -0.995118 4.08209 0 -1.72949 1.00583 0 -3.99488 -2.48157 0 5.59058 -7.34804 0 -0.1961 -5.67922 0 5.65945 -1.49744 0 -8.09964 4.67828 0 -2.59842 2.13036 0 10.4965 -1.34771 0 -0.531746 2.23529 0 7.83429 -1.02708 0 -2.29274 0.0475446 0 -1.02912 -3.68973 0 6.89749 -0.743772 0 2.113 -3.37739 0 -4.21919 8.49049 0 3.54759 4.37175 0 -1.03452 -4.22298 0 -1.64327 4.1658 0 6.14109 0.522631 0 3.06408 -3.87276 0 -0.265011 7.84961 0 -6.31203 -0.990645 0 8.67066 2.06049 0 -4.05041 4.3365 0 3.49844 1.22086 0 0.154184 -1.89957 0 -1.63038 -6.69783 0 -1.75481 -5.83438 0 -0.0555187 -4.06026 0 7.06349 -8.76244 0 -4.31867 -8.04562 0 -0.483356 0.0359192 0 3.40143 4.42832 0 -2.60864 -0.798925 0 -0.0605786 0.507281 0 2.1608 -2.52721 0 6.26586 6.11481 0 3.9026 -7.00608 0 1.71541 -3.55566 0 1.44731 -0.843894 0 4.19625 8.53441 0 -1.38864 4.22948 0 -0.0770281 5.34523 0 -0.876676 1.91053 0 -4.90941 1.71423 0 1.41878 3.67303 0 -6.43526 0.459825 0 8.95546 0.427816 0 3.81747 -1.58023 0 -5.16286 3.16081 0 3.38705 -8.27298 0 -3.45187 -1.75273 0 1.19594 3.34561 0 3.08368 -6.62756 0 1.85625 2.78584 0 -2.47688 0.826266 0 -7.85539 -4.14972 0 -5.37106 2.92555 0 -2.96065 0.566926 0 3.87613 -5.57232 0 6.37514 -3.05102 0 1.64159 2.24244 0 -5.5804 -0.813307 0 -2.80935 -2.09512 0 1.07626 3.82 0 2.56781 -1.72905 0 10.1736 4.46688 0 -3.44096 -2.74938 0 0.787634 -1.84383 0 -8.40275 -0.895285 0 -2.26401 -7.28208 0 -4.90612 -2.8962 0 8.50859 -4.08939 0 0.438306 -2.2766 0 -4.28283 3.42739 0 -1.00016 1.25589 0 12.3903 -7.64859 0 -1.7724 6.43037 0 0.00300188 1.51622 0 -0.962334 -0.925524 0 -3.29594 4.2047 0 3.78951 -1.37496 0 2.04711 0.568847 0 -2.50957 0.705146 0 -6.20005 0.703238 0 11.028 -6.58202 0 -11.9127 -2.98917 0 -5.67258 -1.39538 0 1.242 5.02856 0 3.74947 -4.99326 0 -0.554733 -2.54919 0 -6.4883 1.26245 0 -0.563476 3.06826 0 -3.37735 -1.88093 0 -2.79217 1.96425 0 3.39653 3.25546 0 -7.83573 -5.55414 0 1.37961 -2.54518 0 0.397748 -4.96929 0 -1.37474 3.07231 0 -5.28981 -0.342502 0 -6.7004 6.5793 0 3.09803 4.1599 0 5.20741 -3.14187 0 -1.68778 -6.85773 0 1.9518 -7.08374 0 -5.96848 1.156 0 5.02268 1.53208 0 2.09479 2.99513 0 1.40607 3.41743 0 3.80674 -2.61633 0 3.51916 1.49438 0 4.51688 2.48763 0 5.19088 -0.797593 0 -2.88161 -3.62421 0 -1.11294 5.18811 0 0.591937 3.20189 0 3.38132 4.16559 0 1.89687 -3.70667 0 2.05768 4.38818 0 -5.49191 -4.36778 0 -1.3015 3.19794 0 -1.40201 4.40075 0 -0.176414 4.05147 0 7.38505 6.64205 0 -6.74565 0.675178 0 4.07253 -2.88861 0 -4.91813 3.9157 0 -8.41734 7.94545 0 -0.0314702 -1.26171 0 1.18179 -0.40448 0 2.51812 -0.852829 0 5.70628 0.495958 0 -1.48465 1.95622 0 -0.39774 -4.85282 0 7.72322 1.0673 0 3.83033 -6.68362 0 -2.88708 4.41282 0 5.72747 -1.41658 0 4.81486 -3.52125 0 -5.86759 1.99442 0 -0.22406 0.610938 0 1.13879 2.56937 0 0.311374 4.09674 0 3.50351 -3.6789 0 3.51143 3.61706 0 -2.00184 5.93855 0 6.19928 0.693529 0 2.92277 -6.23609 0 1.1893 -0.958188 0 4.78151 0.658283 0 7.06922 -10.9864 0 0.934103 -4.9572 0 5.67971 -5.36619 0 -0.701559 3.53477 0 7.01879 -0.50708 0 4.77675 -0.806525 0 -2.73144 -5.59527 0 6.14031 -4.88099 0 3.43082 -3.94914 0 -4.25035 -3.19145 0 13.849 3.78209 0 -5.75069 -2.74313 0 -0.102964 3.76733 0 10.2401 5.07563 0 -0.508017 2.17346 0 -2.46585 -1.07614 0 -3.17062 2.28678 0 4.31476 5.30419 0 -1.05936 -2.98156 0 -7.03561 4.05139 0 -1.94444 -1.73517 0 9.43728 -4.23002 0 -3.55315 -2.25188 0 1.53715 2.69822 0 -4.5238 3.086 0 -2.12769 -4.44883 0 -4.90648 6.92807 0 3.88715 2.1336 0 5.12786 0.704751 0 -0.0955539 0.631839 0 -0.391032 -1.05858 0 -3.13665 -2.17327 0 -3.2516 7.17788 0 0.0295404 8.58147 0 10.5928 -0.738078 0 -7.29635 -4.63795 0 0.842512 -2.805 0 -7.17894 -1.96197 0 5.88018 3.58936 0 1.02456 -3.53215 0 -2.58871 8.93758 0 2.90271 6.64432 0 0.0777865 -3.67867 0 -0.0583615 10.4116 0 0.402172 1.6472 0 -4.64917 -6.17987 0 1.21495 0.0640842 0 4.36784 4.78387 0 -2.29379 -3.05706 0 -8.78047 1.90594 0 -1.01199 6.0195 0 6.93262 0.305492 0 7.47935 -6.37762 0 5.85212 -3.42531 0 2.1686 3.83721 0 -2.28205 -2.41507 0 -0.780161 -3.13438 0 -3.70228 4.78478 0 3.5149 1.59098 0 -0.115428 -1.25651 0 -1.76866 -6.15554 0 0.165075 -5.68698 0 -8.77394 4.93883 0 1.1943 -5.22737 0 2.23641 -4.77923 0 -0.442702 1.53283 0 -0.558464 -4.42783 0 2.57451 -2.65594 0 10.6387 -1.86951 0 8.71177 9.59585 0 4.99164 -0.137386 0 1.11379 -4.15363 0 -0.157604 -2.36365 0 -4.31104 0.629669 0 -3.93192 1.8978 0 5.37879 1.52182 0 -1.74465 -2.23434 0 2.38414 1.36658 0 1.70439 1.63487 0 2.72992 -2.12538 0 0.51596 2.61368 0 5.1781 -6.76878 0 1.80633 2.43065 0 -4.6813 -6.11133 0 -3.23349 7.69504 0 -11.2708 6.08585 0 0.745749 2.11703 0 5.74557 -3.57187 0 0.407987 -2.80781 0 2.44515 1.18036 0 -0.593637 2.32445 0 -2.86625 -1.32644 0 -3.50423 2.52627 0 -0.292875 -4.02642 0 2.58654 9.36994 0 9.23107 1.41813 0 4.73604 1.81214 0 8.28422 -1.91675 0 12.9412 3.29796 0 -0.957869 -11.606 0 5.07388 -4.67588 0 0.408338 5.32612 0 2.26906 -4.9344 0 -3.83369 0.382069 0 -3.86435 -2.56982 0 -7.54665 2.92749 0 -6.02684 -2.58209 0 4.64579 -1.33687 0 3.6229 2.59373 0 -1.88577 0.652978 0 7.09809 6.62446 0 -1.52801 -1.1886 0 4.47976 2.15998 0 2.88071 -1.01582 0 -0.154575 -3.24564 0 0.749684 -6.06931 0 4.01212 -0.705238 0 1.85067 -2.24671 0 -5.10922 1.15088 0 1.96603 5.27308 0 4.23973 1.71382 0 1.31877 -0.42853 0 -7.86821 -2.75661 0 1.96515 -4.91862 0 -0.852405 1.2063 0 -7.81571 6.49038 0 -10.311 5.37996 0 8.89545 -4.53573 0 -10.538 1.46031 0 -1.8204 0.837075 0 3.23665 7.23784 0 1.95635 3.25351 0 2.90523 1.42663 0 -4.05894 5.49955 0 -3.65143 1.26522 0 -11.6746 -3.65789 0 -3.17813 1.18468 0 4.24451 1.11232 0 0.54782 6.25981 0 1.02088 -1.93196 0 -3.16989 -7.49577 0 -2.6724 0.84091 0 1.75613 1.35099 0 -0.40856 -0.213936 0 -9.69893 -6.24519 0 -0.301355 7.30915 0 -7.04631 -3.38407 0 -4.5222 -5.12193 0 11.1336 8.32805 0 -6.32585 -12.3259 0 1.39127 6.61882 0 -3.92525 1.70184 0 -2.42489 5.37005 0 2.59751 -1.06148 0 3.43215 -0.41589 0 -6.14779 0.489265 0 -2.20356 2.42182 0 6.66566 5.65476 0 -3.20553 4.19587 0 -0.578193 -2.04882 0 1.74098 1.5357 0 0.662486 -3.48168 0 4.80446 -1.43875 0 -2.87886 -5.74424 0 0.507892 7.61491 0 -1.24392 -1.42168 0 -7.87225 -2.81461 0 3.04367 -10.1872 0 1.20319 1.33756 0 0.0212945 -3.30861 0 -9.53438 0.204531 0 2.81833 0.649507 0 0.0278351 5.33034 0 -1.45554 -2.0202 0 11.2181 -0.983317 0 0.69071 2.978 0 -3.24731 -2.41965 0 2.33185 -8.66273 0 -9.86506 5.60308 0 -0.719797 3.78656 0 -4.26776 3.16146 0 7.03785 4.31215 0 3.53908 -5.24104 0 4.16574 -0.588057 0 2.00205 -0.604263 0 1.36667 -2.76602 0 1.13176 -1.76361 0 -4.63036 1.02222 0 0.307198 -5.12631 0 1.14961 0.945235 0 2.25806 -0.276504 0 -1.46497 -4.47207 0 -4.53445 -1.56773 0 4.72088 -0.804206 0 2.3376 -0.672464 0 -1.51345 -2.53749 0 6.0926 1.8536 0 3.00049 4.89765 0 -1.92378 -10.6649 0 3.38363 3.52319 0 -6.51405 -0.813385 0 -0.776502 10.7086 0 6.18036 -9.54361 0 4.73535 5.02676 0 -3.21395 -3.3678 0 -3.56312 -0.364438 0 -0.8295 -1.36339 0 5.21112 -7.39326 0 0.0972333 -8.48336 0 3.53984 -6.07006 0 8.92332 1.22019 0 2.51275 2.55814 0 -3.59347 10.2169 0 -6.45314 6.823 0 3.66875 12.7387 0 0.7124 7.98591 0 3.74718 -9.09394 0 2.51603 0.407562 0 -0.810361 -4.31632 0 2.65738 0.94737 0 -2.41018 -5.14313 0 -1.68708 -3.502 0 0.272823 3.46175 0 -3.38212 2.50742 0 -1.88801 3.89255 0 5.55885 1.1811 0 -3.63326 6.36823 0 -10.2771 -6.07989 0 -