<VTKFile type="UnstructuredGrid" version="0.1" byte_order="BigEndian">
  <UnstructuredGrid>
    <Piece NumberOfPoints="17490" NumberOfCells="0">
      <Points>
        <DataArray name="Position" type="Float32" NumberOfComponents="3" format="ascii">
          -124.593 -83.552 0 -123.471 -83.552 0 -124.593 -82.4296 0 -124.593 -81.3071 0 -124.593 -80.1847 0 -123.471 -82.4296 0 -123.471 -81.3071 0 -123.471 -80.1847 0 -124.593 -79.0622 0 -124.593 -77.9397 0 -123.471 -79.0622 0 -123.471 -77.9397 0 -124.593 -76.8173 0 -124.593 -75.6948 0 -123.471 -76.8173 0 -123.471 -75.6948 0 -124.593 -74.5723 0 -124.593 -73.4499 0 -123.471 -74.5723 0 -123.471 -73.4499 0 -124.593 -72.3274 0 -124.593 -71.205 0 -124.593 -70.0825 0 -123.471 -72.3274 0 -123.471 -71.205 0 -123.471 -70.0825 0 -124.593 -68.96 0 -124.593 -67.8376 0 -123.471 -68.96 0 -123.471 -67.8376 0 -124.593 -66.7151 0 -124.593 -65.5926 0 -123.471 -66.7151 0 -123.471 -65.5926 0 -124.593 -64.4702 0 -124.593 -63.3477 0 -123.471 -64.4702 0 -123.471 -63.3477 0 -124.593 -62.2253 0 -124.593 -61.1028 0 -123.471 -62.2253 0 -123.471 -61.1028 0 -124.593 -59.9803 0 -124.593 -58.8579 0 -124.593 -57.7354 0 -123.471 -59.9803 0 -123.471 -58.8579 0 -123.471 -57.7354 0 -124.593 -56.613 0 -124.593 -55.4905 0 -123.471 -56.613 0 -123.471 -55.4905 0 -124.593 -54.368 0 -124.593 -53.2456 0 -123.471 -54.368 0 -123.471 -53.2456 0 -124.593 -52.1231 0 -124.593 -51.0006 0 -123.471 -52.1231 0 -123.471 -51.0006 0 -124.593 -49.8782 0 -124.593 -48.7557 0 -124.593 -47.6333 0 -123.471 -49.8782 0 -123.471 -48.7557 0 -123.471 -47.6333 0 -124.593 -46.5108 0 -124.593 -45.3883 0 -123.471 -46.5108 0 -123.471 -45.3883 0 -124.593 -44.2659 0 -124.593 -43.1434 0 -123.471 -44.2659 0 -123.471 -43.1434 0 -124.593 -42.0209 0 -124.593 -40.8985 0 -123.471 -42.0209 0 -123.471 -40.8985 0 -124.593 -39.776 0 -124.593 -38.6536 0 -124.593 -37.5311 0 -123.471 -39.776 0 -123.471 -38.6536 0 -123.471 -37.5311 0 -124.593 -36.4086 0 -124.593 -35.2862 0 -123.471 -36.4086 0 -123.471 -35.2862 0 -124.593 -34.1637 0 -124.593 -33.0412 0 -123.471 -34.1637 0 -123.471 -33.0412 0 -124.593 -31.9188 0 -124.593 -30.7963 0 -123.471 -31.9188 0 -123.471 -30.7963 0 -124.593 -29.6739 0 -124.593 -28.5514 0 -123.471 -29.6739 0 -123.471 -28.5514 0 -124.593 -27.4289 0 -124.593 -26.3065 0 -124.593 -25.184 0 -123.471 -27.4289 0 -123.471 -26.3065 0 -123.471 -25.184 0 -124.593 -24.0616 0 -124.593 -22.9391 0 -123.471 -24.0616 0 -123.471 -22.9391 0 -124.593 -21.8166 0 -124.593 -20.6942 0 -123.471 -21.8166 0 -123.471 -20.6942 0 -124.593 -19.5717 0 -124.593 -18.4492 0 -123.471 -19.5717 0 -123.471 -18.4492 0 -124.593 -17.3268 0 -124.593 -16.2043 0 -124.593 -15.0819 0 -123.471 -17.3268 0 -123.471 -16.2043 0 -123.471 -15.0819 0 -124.593 -13.9594 0 -124.593 -12.8369 0 -123.471 -13.9594 0 -123.471 -12.8369 0 -124.593 -11.7145 0 -124.593 -10.592 0 -123.471 -11.7145 0 -123.471 -10.592 0 -124.593 -9.46954 0 -124.593 -8.34708 0 -123.471 -9.46954 0 -123.471 -8.34708 0 -124.593 -7.22462 0 -124.593 -6.10216 0 -123.471 -7.22462 0 -123.471 -6.10216 0 -124.593 -4.9797 0 -124.593 -3.85723 0 -124.593 -2.73477 0 -123.471 -4.9797 0 -123.471 -3.85723 0 -123.471 -2.73477 0 -124.593 -1.61231 0 -124.593 -0.489848 0 -123.471 -1.61231 0 -123.471 -0.489848 0 -124.593 0.632614 0 -124.593 1.75508 0 -123.471 0.632614 0 -123.471 1.75508 0 -122.348 -83.552 0 -121.226 -83.552 0 -120.103 -83.552 0 -122.348 -82.4296 0 -122.348 -81.3071 0 -122.348 -80.1847 0 -121.226 -82.4296 0 -121.226 -81.3071 0 -121.226 -80.1847 0 -120.103 -82.4296 0 -120.103 -81.3071 0 -120.103 -80.1847 0 -122.348 -79.0622 0 -122.348 -77.9397 0 -121.226 -79.0622 0 -121.226 -77.9397 0 -120.103 -79.0622 0 -120.103 -77.9397 0 -122.348 -76.8173 0 -122.348 -75.6948 0 -121.226 -76.8173 0 -121.226 -75.6948 0 -120.103 -76.8173 0 -120.103 -75.6948 0 -122.348 -74.5723 0 -122.348 -73.4499 0 -121.226 -74.5723 0 -121.226 -73.4499 0 -120.103 -74.5723 0 -120.103 -73.4499 0 -122.348 -72.3274 0 -122.348 -71.205 0 -122.348 -70.0825 0 -121.226 -72.3274 0 -121.226 -71.205 0 -121.226 -70.0825 0 -120.103 -72.3274 0 -120.103 -71.205 0 -120.103 -70.0825 0 -122.348 -68.96 0 -122.348 -67.8376 0 -121.226 -68.96 0 -121.226 -67.8376 0 -120.103 -68.96 0 -120.103 -67.8376 0 -122.348 -66.7151 0 -122.348 -65.5926 0 -121.226 -66.7151 0 -121.226 -65.5926 0 -120.103 -66.7151 0 -120.103 -65.5926 0 -122.348 -64.4702 0 -122.348 -63.3477 0 -121.226 -64.4702 0 -121.226 -63.3477 0 -120.103 -64.4702 0 -120.103 -63.3477 0 -122.348 -62.2253 0 -122.348 -61.1028 0 -121.226 -62.2253 0 -121.226 -61.1028 0 -120.103 -62.2253 0 -120.103 -61.1028 0 -122.348 -59.9803 0 -122.348 -58.8579 0 -122.348 -57.7354 0 -121.226 -59.9803 0 -121.226 -58.8579 0 -121.226 -57.7354 0 -120.103 -59.9803 0 -120.103 -58.8579 0 -120.103 -57.7354 0 -122.348 -56.613 0 -122.348 -55.4905 0 -121.226 -56.613 0 -121.226 -55.4905 0 -120.103 -56.613 0 -120.103 -55.4905 0 -122.348 -54.368 0 -122.348 -53.2456 0 -121.226 -54.368 0 -121.226 -53.2456 0 -120.103 -54.368 0 -120.103 -53.2456 0 -122.348 -52.1231 0 -122.348 -51.0006 0 -121.226 -52.1231 0 -121.226 -51.0006 0 -120.103 -52.1231 0 -120.103 -51.0006 0 -122.348 -49.8782 0 -122.348 -48.7557 0 -122.348 -47.6333 0 -121.226 -49.8782 0 -121.226 -48.7557 0 -121.226 -47.6333 0 -120.103 -49.8782 0 -120.103 -48.7557 0 -120.103 -47.6333 0 -122.348 -46.5108 0 -122.348 -45.3883 0 -121.226 -46.5108 0 -121.226 -45.3883 0 -120.103 -46.5108 0 -120.103 -45.3883 0 -122.348 -44.2659 0 -122.348 -43.1434 0 -121.226 -44.2659 0 -121.226 -43.1434 0 -120.103 -44.2659 0 -120.103 -43.1434 0 -122.348 -42.0209 0 -122.348 -40.8985 0 -121.226 -42.0209 0 -121.226 -40.8985 0 -120.103 -42.0209 0 -120.103 -40.8985 0 -122.348 -39.776 0 -122.348 -38.6536 0 -122.348 -37.5311 0 -121.226 -39.776 0 -121.226 -38.6536 0 -121.226 -37.5311 0 -120.103 -39.776 0 -120.103 -38.6536 0 -120.103 -37.5311 0 -122.348 -36.4086 0 -122.348 -35.2862 0 -121.226 -36.4086 0 -121.226 -35.2862 0 -120.103 -36.4086 0 -120.103 -35.2862 0 -122.348 -34.1637 0 -122.348 -33.0412 0 -121.226 -34.1637 0 -121.226 -33.0412 0 -120.103 -34.1637 0 -120.103 -33.0412 0 -122.348 -31.9188 0 -122.348 -30.7963 0 -121.226 -31.9188 0 -121.226 -30.7963 0 -120.103 -31.9188 0 -120.103 -30.7963 0 -122.348 -29.6739 0 -122.348 -28.5514 0 -121.226 -29.6739 0 -121.226 -28.5514 0 -120.103 -29.6739 0 -120.103 -28.5514 0 -122.348 -27.4289 0 -122.348 -26.3065 0 -122.348 -25.184 0 -121.226 -27.4289 0 -121.226 -26.3065 0 -121.226 -25.184 0 -120.103 -27.4289 0 -120.103 -26.3065 0 -120.103 -25.184 0 -122.348 -24.0616 0 -122.348 -22.9391 0 -121.226 -24.0616 0 -121.226 -22.9391 0 -120.103 -24.0616 0 -120.103 -22.9391 0 -122.348 -21.8166 0 -122.348 -20.6942 0 -121.226 -21.8166 0 -121.226 -20.6942 0 -120.103 -21.8166 0 -120.103 -20.6942 0 -122.348 -19.5717 0 -122.348 -18.4492 0 -121.226 -19.5717 0 -121.226 -18.4492 0 -120.103 -19.5717 0 -120.103 -18.4492 0 -122.348 -17.3268 0 -122.348 -16.2043 0 -122.348 -15.0819 0 -121.226 -17.3268 0 -121.226 -16.2043 0 -121.226 -15.0819 0 -120.103 -17.3268 0 -120.103 -16.2043 0 -120.103 -15.0819 0 -122.348 -13.9594 0 -122.348 -12.8369 0 -121.226 -13.9594 0 -121.226 -12.8369 0 -120.103 -13.9594 0 -120.103 -12.8369 0 -122.348 -11.7145 0 -122.348 -10.592 0 -121.226 -11.7145 0 -121.226 -10.592 0 -120.103 -11.7145 0 -120.103 -10.592 0 -122.348 -9.46954 0 -122.348 -8.34708 0 -121.226 -9.46954 0 -121.226 -8.34708 0 -120.103 -9.46954 0 -120.103 -8.34708 0 -122.348 -7.22462 0 -122.348 -6.10216 0 -121.226 -7.22462 0 -121.226 -6.10216 0 -120.103 -7.22462 0 -120.103 -6.10216 0 -122.348 -4.9797 0 -122.348 -3.85723 0 -122.348 -2.73477 0 -121.226 -4.9797 0 -121.226 -3.85723 0 -121.226 -2.73477 0 -120.103 -4.9797 0 -120.103 -3.85723 0 -120.103 -2.73477 0 -122.348 -1.61231 0 -122.348 -0.489848 0 -121.226 -1.61231 0 -121.226 -0.489848 0 -120.103 -1.61231 0 -120.103 -0.489848 0 -122.348 0.632614 0 -122.348 1.75508 0 -121.226 0.632614 0 -121.226 1.75508 0 -120.103 0.632614 0 -120.103 1.75508 0 -118.981 -83.552 0 -117.859 -83.552 0 -118.981 -82.4296 0 -118.981 -81.3071 0 -118.981 -80.1847 0 -117.859 -82.4296 0 -117.859 -81.3071 0 -117.859 -80.1847 0 -118.981 -79.0622 0 -118.981 -77.9397 0 -117.859 -79.0622 0 -117.859 -77.9397 0 -118.981 -76.8173 0 -118.981 -75.6948 0 -117.859 -76.8173 0 -117.859 -75.6948 0 -118.981 -74.5723 0 -118.981 -73.4499 0 -117.859 -74.5723 0 -117.859 -73.4499 0 -118.981 -72.3274 0 -118.981 -71.205 0 -118.981 -70.0825 0 -117.859 -72.3274 0 -117.859 -71.205 0 -117.859 -70.0825 0 -118.981 -68.96 0 -118.981 -67.8376 0 -117.859 -68.96 0 -117.859 -67.8376 0 -118.981 -66.7151 0 -118.981 -65.5926 0 -117.859 -66.7151 0 -117.859 -65.5926 0 -118.981 -64.4702 0 -118.981 -63.3477 0 -117.859 -64.4702 0 -117.859 -63.3477 0 -118.981 -62.2253 0 -118.981 -61.1028 0 -117.859 -62.2253 0 -117.859 -61.1028 0 -118.981 -59.9803 0 -118.981 -58.8579 0 -118.981 -57.7354 0 -117.859 -59.9803 0 -117.859 -58.8579 0 -117.859 -57.7354 0 -118.981 -56.613 0 -118.981 -55.4905 0 -117.859 -56.613 0 -117.859 -55.4905 0 -118.981 -54.368 0 -118.981 -53.2456 0 -117.859 -54.368 0 -117.859 -53.2456 0 -118.981 -52.1231 0 -118.981 -51.0006 0 -117.859 -52.1231 0 -117.859 -51.0006 0 -118.981 -49.8782 0 -118.981 -48.7557 0 -118.981 -47.6333 0 -117.859 -49.8782 0 -117.859 -48.7557 0 -117.859 -47.6333 0 -118.981 -46.5108 0 -118.981 -45.3883 0 -117.859 -46.5108 0 -117.859 -45.3883 0 -118.981 -44.2659 0 -118.981 -43.1434 0 -117.859 -44.2659 0 -117.859 -43.1434 0 -118.981 -42.0209 0 -118.981 -40.8985 0 -117.859 -42.0209 0 -117.859 -40.8985 0 -118.981 -39.776 0 -118.981 -38.6536 0 -118.981 -37.5311 0 -117.859 -39.776 0 -117.859 -38.6536 0 -117.859 -37.5311 0 -118.981 -36.4086 0 -118.981 -35.2862 0 -117.859 -36.4086 0 -117.859 -35.2862 0 -118.981 -34.1637 0 -118.981 -33.0412 0 -117.859 -34.1637 0 -117.859 -33.0412 0 -118.981 -31.9188 0 -118.981 -30.7963 0 -117.859 -31.9188 0 -117.859 -30.7963 0 -118.981 -29.6739 0 -118.981 -28.5514 0 -117.859 -29.6739 0 -117.859 -28.5514 0 -118.981 -27.4289 0 -118.981 -26.3065 0 -118.981 -25.184 0 -117.859 -27.4289 0 -117.859 -26.3065 0 -117.8
[...]
      <PointData Vectors="vector">
        <DataArray type="Float32" Name="Velocity" NumberOfComponents="3" format="ascii">
          3.33434e-05 -0.000566657 0 4.11084e-06 -0.000537424 0 6.25761e-05 -0.000595889 0 6.25761e-05 -0.0006 0 6.25761e-05 -0.0006 0 4.11084e-06 -0.000595889 0 4.11084e-06 -0.0006 0 4.11084e-06 -0.0006 0 6.25761e-05 -0.0006 0 6.25761e-05 -0.0006 0 4.11084e-06 -0.0006 0 4.11084e-06 -0.0006 0 6.25761e-05 -0.0006 0 6.25761e-05 -0.0006 0 4.11084e-06 -0.0006 0 4.11084e-06 -0.0006 0 6.25761e-05 -0.0006 0 6.25761e-05 -0.0006 0 4.11084e-06 -0.0006 0 4.11084e-06 -0.0006 0 6.25761e-05 -0.0006 0 6.25761e-05 -0.0006 0 6.25761e-05 -0.0006 0 4.11084e-06 -0.0006 0 4.11084e-06 -0.0006 0 4.11084e-06 -0.0006 0 6.25761e-05 -0.0006 0 6.25761e-05 -0.0006 0 4.11084e-06 -0.0006 0 4.11084e-06 -0.0006 0 6.25761e-05 -0.0006 0 6.25761e-05 -0.0006 0 4.11084e-06 -0.0006 0 4.11084e-06 -0.0006 0 6.25761e-05 -0.0006 0 6.25761e-05 -0.0006 0 4.11084e-06 -0.0006 0 4.11084e-06 -0.0006 0 6.25761e-05 -0.0006 0 6.25761e-05 -0.0006 0 4.11084e-06 -0.0006 0 4.11084e-06 -0.0006 0 6.25761e-05 -0.0006 0 6.25761e-05 -0.0006 0 6.25761e-05 -0.0006 0 4.11084e-06 -0.0006 0 4.11084e-06 -0.0006 0 4.11084e-06 -0.0006 0 6.25761e-05 -0.0006 0 6.25761e-05 -0.0006 0 4.11084e-06 -0.0006 0 4.11084e-06 -0.0006 0 6.25761e-05 -0.0006 0 6.25761e-05 -0.0006 0 4.11084e-06 -0.0006 0 4.11084e-06 -0.0006 0 6.25761e-05 -0.0006 0 6.25761e-05 -0.0006 0 4.11084e-06 -0.0006 0 4.11084e-06 -0.0006 0 6.25761e-05 -0.0006 0 6.25761e-05 -0.0006 0 6.25761e-05 -0.0006 0 4.11084e-06 -0.0006 0 4.11084e-06 -0.0006 0 4.11084e-06 -0.0006 0 6.25761e-05 -0.0006 0 6.25761e-05 -0.0006 0 4.11084e-06 -0.0006 0 4.11084e-06 -0.0006 0 6.25761e-05 -0.0006 0 6.25761e-05 -0.0006 0 4.11084e-06 -0.0006 0 4.11084e-06 -0.0006 0 6.25761e-05 -0.0006 0 6.25761e-05 -0.0006 0 4.11084e-06 -0.0006 0 4.11084e-06 -0.0006 0 6.25761e-05 -0.0006 0 6.25761e-05 -0.0006 0 6.25761e-05 -0.0006 0 4.11084e-06 -0.0006 0 4.11084e-06 -0.0006 0 4.11084e-06 -0.0006 0 6.25761e-05 -0.0006 0 6.25761e-05 -0.0006 0 4.11084e-06 -0.0006 0 4.11084e-06 -0.0006 0 6.25761e-05 -0.0006 0 6.25761e-05 -0.0006 0 4.11084e-06 -0.0006 0 4.11084e-06 -0.0006 0 6.25761e-05 -0.0006 0 6.25761e-05 -0.0006 0 4.11084e-06 -0.0006 0 4.11084e-06 -0.0006 0 6.25761e-05 -0.0006 0 6.25761e-05 -0.0006 0 4.11084e-06 -0.0006 0 4.11084e-06 -0.0006 0 6.25761e-05 -0.0006 0 6.25761e-05 -0.0006 0 6.25761e-05 -0.0006 0 4.11084e-06 -0.0006 0 4.11084e-06 -0.0006 0 4.11084e-06 -0.0006 0 6.25761e-05 -0.0006 0 6.25761e-05 -0.0006 0 4.11084e-06 -0.0006 0 4.11084e-06 -0.0006 0 6.25761e-05 -0.0006 0 6.25761e-05 -0.0006 0 4.11084e-06 -0.0006 0 4.11084e-06 -0.0006 0 6.25761e-05 -0.0006 0 6.25761e-05 -0.0006 0 4.11084e-06 -0.0006 0 4.11084e-06 -0.0006 0 6.25761e-05 -0.0006 0 6.25761e-05 -0.0006 0 6.25761e-05 -0.0006 0 4.11084e-06 -0.0006 0 4.11084e-06 -0.0006 0 4.11084e-06 -0.0006 0 6.25761e-05 -0.0006 0 6.25761e-05 -0.0006 0 4.11084e-06 -0.0006 0 4.11084e-06 -0.0006 0 6.25761e-05 -0.0006 0 6.25761e-05 -0.0006 0 4.11084e-06 -0.0006 0 4.11084e-06 -0.0006 0 6.25761e-05 -0.0006 0 6.25761e-05 -0.0006 0 4.11084e-06 -0.0006 0 4.11084e-06 -0.0006 0 6.25761e-05 -0.0006 0 6.25761e-05 -0.0006 0 4.11084e-06 -0.0006 0 4.11084e-06 -0.0006 0 6.25761e-05 -0.0006 0 6.25761e-05 -0.0006 0 6.25761e-05 -0.0006 0 4.11084e-06 -0.0006 0 4.11084e-06 -0.0006 0 4.11084e-06 -0.0006 0 6.25761e-05 -0.0006 0 6.25761e-05 -0.0006 0 4.11084e-06 -0.0006 0 4.11084e-06 -0.0006 0 6.25761e-05 -0.000604111 0 3.33434e-05 -0.000633343 0 4.11084e-06 -0.000604111 0 4.11084e-06 -0.000662576 0 1.38114e-13 -0.000537424 0 -6.49712e-16 -0.000537424 0 -5.55112e-21 -0.000537424 0 1.30052e-13 -0.000595889 0 1.30052e-13 -0.0006 0 1.30052e-13 -0.0006 0 -6.49707e-16 -0.000595889 0 -6.49704e-16 -0.0006 0 -6.49707e-16 -0.0006 0 1.38778e-21 -0.000595889 0 -1.38778e-21 -0.0006 0 0 -0.0006 0 1.30052e-13 -0.0006 0 1.30052e-13 -0.0006 0 -6.49707e-16 -0.0006 0 -6.49707e-16 -0.0006 0 1.38778e-21 -0.0006 0 0 -0.0006 0 1.30052e-13 -0.0006 0 1.30052e-13 -0.0006 0 -6.49707e-16 -0.0006 0 -6.49707e-16 -0.0006 0 1.38778e-21 -0.0006 0 0 -0.0006 0 1.30052e-13 -0.0006 0 1.30052e-13 -0.0006 0 -6.49707e-16 -0.0006 0 -6.49707e-16 -0.0006 0 1.38778e-21 -0.0006 0 0 -0.0006 0 1.30052e-13 -0.0006 0 1.30052e-13 -0.0006 0 1.30052e-13 -0.0006 0 -6.49707e-16 -0.0006 0 -6.49707e-16 -0.0006 0 -6.49707e-16 -0.0006 0 1.38778e-21 -0.0006 0 1.38778e-21 -0.0006 0 0 -0.0006 0 1.30052e-13 -0.0006 0 1.30052e-13 -0.0006 0 -6.49707e-16 -0.0006 0 -6.49707e-16 -0.0006 0 1.38778e-21 -0.0006 0 0 -0.0006 0 1.30052e-13 -0.0006 0 1.30052e-13 -0.0006 0 -6.49707e-16 -0.0006 0 -6.49707e-16 -0.0006 0 1.38778e-21 -0.0006 0 0 -0.0006 0 1.30052e-13 -0.0006 0 1.30052e-13 -0.0006 0 -6.49707e-16 -0.0006 0 -6.49707e-16 -0.0006 0 1.38778e-21 -0.0006 0 0 -0.0006 0 1.30052e-13 -0.0006 0 1.30052e-13 -0.0006 0 -6.49707e-16 -0.0006 0 -6.49707e-16 -0.0006 0 1.38778e-21 -0.0006 0 0 -0.0006 0 1.30052e-13 -0.0006 0 1.30052e-13 -0.0006 0 1.30052e-13 -0.0006 0 -6.49707e-16 -0.0006 0 -6.49709e-16 -0.0006 0 -6.49709e-16 -0.0006 0 1.38778e-21 -0.0006 0 4.16334e-21 -0.0006 0 2.77556e-21 -0.0006 0 1.30052e-13 -0.0006 0 1.30052e-13 -0.0006 0 -6.49707e-16 -0.0006 0 -6.49707e-16 -0.0006 0 1.38778e-21 -0.0006 0 0 -0.0006 0 1.30052e-13 -0.0006 0 1.30052e-13 -0.0006 0 -6.49707e-16 -0.0006 0 -6.49707e-16 -0.0006 0 1.38778e-21 -0.0006 0 0 -0.0006 0 1.30052e-13 -0.0006 0 1.30052e-13 -0.0006 0 -6.49707e-16 -0.0006 0 -6.49707e-16 -0.0006 0 1.38778e-21 -0.0006 0 0 -0.0006 0 1.30052e-13 -0.0006 0 1.30052e-13 -0.0006 0 1.30052e-13 -0.0006 0 -6.49707e-16 -0.0006 0 -6.49707e-16 -0.0006 0 -6.49707e-16 -0.0006 0 1.38778e-21 -0.0006 0 1.38778e-21 -0.0006 0 0 -0.0006 0 1.30052e-13 -0.0006 0 1.30052e-13 -0.0006 0 -6.49707e-16 -0.0006 0 -6.49707e-16 -0.0006 0 1.38778e-21 -0.0006 0 0 -0.0006 0 1.30052e-13 -0.0006 0 1.30052e-13 -0.0006 0 -6.49707e-16 -0.0006 0 -6.49707e-16 -0.0006 0 1.38778e-21 -0.0006 0 0 -0.0006 0 1.30052e-13 -0.0006 0 1.30052e-13 -0.0006 0 -6.49707e-16 -0.0006 0 -6.49707e-16 -0.0006 0 1.38778e-21 -0.0006 0 0 -0.0006 0 1.30052e-13 -0.0006 0 1.30052e-13 -0.0006 0 1.30052e-13 -0.0006 0 -6.49707e-16 -0.0006 0 -6.49707e-16 -0.0006 0 -6.49707e-16 -0.0006 0 1.38778e-21 -0.0006 0 1.38778e-21 -0.0006 0 0 -0.0006 0 1.30052e-13 -0.0006 0 1.30052e-13 -0.0006 0 -6.49707e-16 -0.0006 0 -6.49707e-16 -0.0006 0 1.38778e-21 -0.0006 0 0 -0.0006 0 1.30052e-13 -0.0006 0 1.30052e-13 -0.0006 0 -6.49707e-16 -0.0006 0 -6.49707e-16 -0.0006 0 1.38778e-21 -0.0006 0 0 -0.0006 0 1.30052e-13 -0.0006 0 1.30052e-13 -0.0006 0 -6.49707e-16 -0.0006 0 -6.49707e-16 -0.0006 0 1.38778e-21 -0.0006 0 0 -0.0006 0 1.30052e-13 -0.0006 0 1.30052e-13 -0.0006 0 -6.49707e-16 -0.0006 0 -6.49707e-16 -0.0006 0 1.38778e-21 -0.0006 0 0 -0.0006 0 1.30052e-13 -0.0006 0 1.30052e-13 -0.0006 0 1.30052e-13 -0.0006 0 -6.49707e-16 -0.0006 0 -6.49707e-16 -0.0006 0 -6.49707e-16 -0.0006 0 1.38778e-21 -0.0006 0 1.38778e-21 -0.0006 0 0 -0.0006 0 1.30052e-13 -0.0006 0 1.30052e-13 -0.0006 0 -6.49707e-16 -0.0006 0 -6.49707e-16 -0.0006 0 1.38778e-21 -0.0006 0 0 -0.0006 0 1.30052e-13 -0.0006 0 1.30052e-13 -0.0006 0 -6.49707e-16 -0.0006 0 -6.49707e-16 -0.0006 0 1.38778e-21 -0.0006 0 0 -0.0006 0 1.30052e-13 -0.0006 0 1.30052e-13 -0.0006 0 -6.49707e-16 -0.0006 0 -6.49707e-16 -0.0006 0 1.38778e-21 -0.0006 0 0 -0.0006 0 1.30052e-13 -0.0006 0 1.30052e-13 -0.0006 0 1.30052e-13 -0.0006 0 -6.49707e-16 -0.0006 0 -6.49707e-16 -0.0006 0 -6.49707e-16 -0.0006 0 1.38778e-21 -0.0006 0 1.38778e-21 -0.0006 0 0 -0.0006 0 1.30052e-13 -0.0006 0 1.30052e-13 -0.0006 0 -6.49707e-16 -0.0006 0 -6.49707e-16 -0.0006 0 1.38778e-21 -0.0006 0 0 -0.0006 0 1.30052e-13 -0.0006 0 1.30052e-13 -0.0006 0 -6.49707e-16 -0.0006 0 -6.49707e-16 -0.0006 0 1.38778e-21 -0.0006 0 0 -0.0006 0 1.30052e-13 -0.0006 0 1.30052e-13 -0.0006 0 -6.49707e-16 -0.0006 0 -6.49707e-16 -0.0006 0 1.38778e-21 -0.0006 0 0 -0.0006 0 1.30052e-13 -0.0006 0 1.30052e-13 -0.0006 0 -6.49707e-16 -0.0006 0 -6.49707e-16 -0.0006 0 1.38778e-21 -0.0006 0 0 -0.0006 0 1.30052e-13 -0.0006 0 1.30052e-13 -0.0006 0 1.30052e-13 -0.0006 0 -6.49707e-16 -0.0006 0 -6.49707e-16 -0.0006 0 -6.49707e-16 -0.0006 0 1.38778e-21 -0.0006 0 1.38778e-21 -0.0006 0 0 -0.0006 0 1.30052e-13 -0.0006 0 1.30052e-13 -0.0006 0 -6.49707e-16 -0.0006 0 -6.49704e-16 -0.0006 0 1.38778e-21 -0.0006 0 -2.77556e-21 -0.0006 0 1.30052e-13 -0.000604111 0 1.38114e-13 -0.000662576 0 -6.49707e-16 -0.000604111 0 -6.49705e-16 -0.000662576 0 1.38778e-21 -0.000604111 0 3.46945e-21 -0.000662576 0 -4.16334e-21 -0.000537424 0 -5.55112e-21 -0.000537424 0 -4.16334e-21 -0.000595889 0 -1.38778e-21 -0.0006 0 1.38778e-21 -0.0006 0 1.38778e-21 -0.000595889 0 -1.38778e-21 -0.0006 0 0 -0.0006 0 -4.16334e-21 -0.0006 0 1.38778e-21 -0.0006 0 1.38778e-21 -0.0006 0 0 -0.0006 0 -4.16334e-21 -0.0006 0 1.38778e-21 -0.0006 0 1.38778e-21 -0.0006 0 0 -0.0006 0 -4.16334e-21 -0.0006 0 1.38778e-21 -0.0006 0 1.38778e-21 -0.0006 0 0 -0.0006 0 -4.16334e-21 -0.0006 0 1.38778e-21 -0.0006 0 1.38778e-21 -0.0006 0 1.38778e-21 -0.0006 0 1.38778e-21 -0.0006 0 0 -0.0006 0 -4.16334e-21 -0.0006 0 1.38778e-21 -0.0006 0 1.38778e-21 -0.0006 0 0 -0.0006 0 -4.16334e-21 -0.0006 0 1.38778e-21 -0.0006 0 1.38778e-21 -0.0006 0 0 -0.0006 0 -4.16334e-21 -0.0006 0 1.38778e-21 -0.0006 0 1.38778e-21 -0.0006 0 0 -0.0006 0 -4.16334e-21 -0.0006 0 1.38778e-21 -0.0006 0 1.38778e-21 -0.0006 0 0 -0.0006 0 -4.16334e-21 -0.0006 0 4.16334e-21 -0.0006 0 4.16334e-21 -0.0006 0 1.38778e-21 -0.0006 0 4.16334e-21 -0.0006 0 2.77556e-21 -0.0006 0 -4.16334e-21 -0.0006 0 1.38778e-21 -0.0006 0 1.38778e-21 -0.0006 0 0 -0.0006 0 -4.16334e-21 -0.0006 0 1.38778e-21 -0.0006 0 1.38778e-21 -0.0006 0 0 -0.0006 0 -4.16334e-21 -0.0006 0 1.38778e-21 -0.0006 0 1.38778e-21 -0.0006 0 0 -0.0006 0 -4.16334e-21 -0.0006 0 1.38778e-21 -0.0006 0 1.38778e-21 -0.0006 0 1.38778e-21 -0.0006 0 1.38778e-21 -0.0006 0 0 -0.0006 0 -4.16334e-21 -0.0006 0 1.38778e-21 -0.0006 0 1.38778e-21 -0.0006 0 0 -0.0006 0 -4.16334e-21 -0.0006 0 1.38778e-21 -0.0006 0 1.38778e-21 -0.0006 0 0 -0.0006 0 -4.16334e-21 -0.0006 0 1.38778e-21 -0.0006 0 1.38778e-21 -0.0006 0 0 -0.0006 0 -4.16334e-21 -0.0006 0 1.38778e-21 -0.0006 0 1.38778e-21 -0.0006 0 1.38778e-21 -0.0006 0 1.38778e-21 -0.0006 0 0 -0.0006 0 -4.16334e-21 -0.0006 0 1.38778e-21 -0.0006 0 1.38778e-21 -0.0006 0 0 -0.0006 0 -4.16334e-21 -0.0006 0 1.38778e-21 -0.0006 0 1.38778e-21 -0.0006 0 0 -0.0006 0 -4.16334e-21 -0.0006 0 1.38778e-21 -0.0006 0 1.38778e-21 -0.0006 0 0 -0.0006 0 -4.16334e-21 -0.0006 0 1.38778e-21 -0.0006 0 1.38778e-21 -0.0006 0 0 -0.0006 0 -4.16334e-21 -0.0006 0 1.38778e-21 -0.0006 0 1.38778e-21 -0.0006 0 1.38778e-21 -0.0006 0 1.38778e-21 -0.0006 0 0 -0.0006 0 -4.16334e-21 -0.0006 0 1.38778e-21 -0.0006 0 1.38778e-21 -0.0006 0 0 -0.0006 0 -4.16334e-21 -0.0006 0 1.38778e-21 -0.0006 0 1.38778e-21 -0.0006 0 0 -0.0006 0 -4.16334e-21 -0.0006 0 1.38778e-21 -0.0006 0 1.38778e-21 -0.0006 0 0 -0.0006 0 -4.16334e-21 -0.0006 0 1.38778e-21 -0.0006 0 1.38778e-21 -0.0006 0 1.38778e-21 -0.0006 0 1.38778e-21 -0.0006 0 0 -0.0006 0 -4.16334e-21 -0.0006 0 1.38778e-21 -0.0006 0 1.38778e-21 -0.0006 0 0 -0.0006 0 -4.16334e-21 -0.0006 0 1.38778e-21 -0.0006 0 1.38778e-21 -0.0006 0 0 -0.0006 0 -4.16334e-21 -0.0006 0 1.38778e-21 -0.0006 0 1.38778e-21 -0.0006 0 0 -0.0006 0 -4.16334e-21 -0.0006 0 1.38778e-21 -0.0006 0 1.38778e-21 -0.0006 0 0 -0.0006 0 -4.16334e-21 -0.0006 0 1.38778e-21 -0.0006 0 1.38778e-21 -0.0006 0 1.38778e-21 -0.0006 0 1.38778e-21 -0.0006 0 0 -0.0006 0 -4.16334e-21 -0.0006 0 -1.38778e-21 -0.0006 0 1.38778e-21 -0.0006 0 -2.77556e-21 -0.0006 0 -4.16334e-21 -0.000604111 0 3.46945e-21 -0.000662576 0 1.38778e-21 -0.000604111 0 3.46945e-21 -0.000662576 0 -4.16334e-21 -0.000537424 0 -5.55112e-21 -0.000537424 0 -4.16334e-21 -0.000595889 0 -1.38778e-21 -0.0006 0 1.38778e-21 -0.0006 0 1.38778e-21 -0.000595889 0 -1.38778e-21 -0.0006 0 0 -0.0006 0 -4.16334e-21 -0.0006 0 1.38778e-21 -0.0006 0 1.38778e-21 -0.0006 0 0 -0.0006 0 -4.16334e-21 -0.0006 0 1.38778e-21 -0.0006 0 1.38778e-21 -0.0006 0 0 -0.0006 0 -4.16334e-21 -0.0006 0 1.38778e-21 -0.0006 0 1.38778e-21 -0.0006 0 0 -0.0006 0 -4.16334e-21 -0.0006 0 1.38778e-21 -0.0006 0 1.38778e-21 -0.0006 0 1.38778e-21 -0.0006 0 1.38778e-21 -0.0006 0 0 -0.0006 0 -4.16334e-21 -0.0006 0 1.38778e-21 -0.0006 0 1.38778e-21 -0.0006 0 0 -0.0006 0 -4.16334e-21 -0.0006 0 1.38778e-21 -0.0006 0 1.38778e-21 -0.0006 0 0 -0.0006 0 -4.16334e-21 -0.0006 0 1.38778e-21 -0.0006 0 1.38778e-21 -0.0006 0 0 -0.0006 0 -4.16334e-21 -0.0006 0 1.38778e-21 -0.0006 0 1.38778e-21 -0.0006 0 0 -0.0006 0 -4.16334e-21 -0.0006 0 4.16334e-21 -0.0006 0 4.16334e-21 -0.0006 0 1.38778e-21 -0.0006 0 4.16334e-21 -0.0006 0 2.77556e-21 -0.0006 0 -4.16334e-21 -0.0006 0 1.38778e-21 -0.0006 0 1.38778e-21 -0.0006 0 0 -0.0006 0 -4.16334e-21 -0.0006 0 1.38778e-21 -0.0006 0 1.38778e-21 -0.0006 0 0 -0.0006 0 -4.16334e-21 -0.0006 0 1.38778e-21 -0.0006 0 1.38778e-21 -0.0006 0 0 -0.0006 0 -4.16334e-21 -0.0006 0 1.38778e-21 -0.0006 0 1.38778e-21 -0.0006 0 1.38778e-21 -0.0006 0 1.38778e-21 -0.0006 0 0 -0.0006 0 -4.16334e-21 -0.0006 0 1.38778e-21 -0.0006 0 1.38778e-21 -0.0006 0 0 -0.0006 0 -4.16334e-21 -0.0006 0 1.38778e-21 -0.0006 0 1.38778e-21 -0.0006 0 0 -0.0006 0 -4.16334e-21 -0.0006 0 1.38778e-21 -0.0006 0 1.38778e-21 -0.0006 0 0 -0.0006 0 -4.16334e-21 -0.0006 0 1.38778e-21 -0.0006 0 1.38778e-21 -0.0006 0 1.38778e-21 -0.0006 0 1.38778e-21 -0.0006 0 0 -0.0006 0 -4.16334e-21 -0.0006 0 1.38778e-21 -0.0006 0 1.38778e-21 -0.0006 0 0 -0.0006 0 -4.16334e-21 -0.0006 0 1.38778e-21 -0.0006 0 1.38778e-21 -0.0006 0 0 -0.0006 0 -4.16334e-21 -0.0006 0 1.38778e-21 -0.0006 0 1.38778e-21 -0.0006 0 0 -0.0006 0 -4.16334e-21 -0.0006 0 1.38778e-21 -0.0006 0 1.38778e-21 -0.0006 0 0 -0.0006 0 -4.16334e-21 -0.0006 0 1.38778e-21 -0.0006 0 1.38778e-21 -0.0006 0 1.38778e-21 -0.0006 0 1.38778e-21 -0.0006 0 0 -0.0006 0 -4.16334e-21 -0.0006 0 1.38778e-21 -0.0006 0 1.38778e-21 -0.0006 0 0 -0.0006 0 -4.16334e-21 -0.0006 0 1.38778e-21 -0.0006 0 1.38778e-21 -0.0006 0 0 -0.0006 0 -4.16334e-21 -0.0006 0 1.38778e-21 -0.0006 0 1.38778e-21 -0.0006 0 0 -0.0006 0 -4.16334e-21 -0.0006 0 1.38778e-21 -0.0006 0 1.38778e-21 -0.0006 0 1.38778e-21 -0.0006 0 1.38778e-21 -0.0006 0 0 -0.0006 0 -4.16334e-21 -0.0006 0 1.38778e-21 -0.0006 0 1.38778e-21 -0.0006 0 0 -0.0006 0 -4.16334e-21 -0.0006 0 1.38778e-21 -0.0006 0 1.38778e-21 -0.0006 0 0 -0.0006 0 -4.16334e-21 -0.0006 0 1.38778e-21 -0.0006 0 1.38778e-21 -0.0006 0 0 -0.0006 0 -4.16334e-21 -0.0006 0 1.38778e-21 -0.0006 0 1.38778e-21 -0.0006 0 0 -0.0006 0 -4.16334e-21 -0.0006 0 1.38778e-21 -0.0006 0 1.38778e-21 -0.0006 0 1.38778e-21 -0.0006 0 1.38778e-21 -0.0006 0 0 -0.0006 0 -4.16334e-21 -0.0006 0 -1.38778e-21 -0.0006 0 1.38778e-21 -0.0006 0 -2.77556e-21 -0.0006 0 -4.16334e-21 -0.000604111 0 3.46945e-21 -0.000662576 0 1.38778e-21 -0.000604111 0 3.46945e-21 -0.000662576 0 -4.16334e-21 -0.000537424 0 -5.55112e-21 -0.000537424 0 -4.16334e-21 -0.000595889 0 -1.38778e-21 -0.0006 0 1.38778e-21 -0.0006 0 1.38778e-21 -0.000595889 0 -1.38778e-21 -0.0006 0 0 -0.0006 0 -4.16334e-21 -0.0006 0 1.38778e-21 -0.0006 0 1.38778e-21 -0.0006 0 0 -0.0006 0 -4.16334e-21 -0.0006 0 1.38778e-21 -0.0006 0 1.38778e-21 -0.0006 0 0 -0.0006 0 -4.16334e-21 -0.0006 0 1.38778e-21 -0.0006 0 1.38778e-21 -0.0006 0 0 -0.0006 0 -4.16334e-21 -0.0006 0 1.38778e-21 -0.0006 0 1.38778e-21 -0.0006 0 1.38778e-21 -0.0006 0 1.38778e-21 -0.0006 0 0 -0.0006 0 -4.16334e-21 -0.0006 0 1.38778e-21 -0.0006 0 1.38778e-21 -0.0006 0 0 -0.0006 0 -4.16334e-21 -0.0006 0 1.38778e-21 -0.0006 0 1.38778e-21 -0.0006 0 0 -0.0006 0 -4.16334e-21 -0.0006 0 1.38778e-21 -0.0006 0 1.38778e-21 -0.0006 0 0 -0.0006 0 -4.16334e-21 -0.0006 0 1.38778e-21 -0.0006 0 1.38778e-21 -0.0006 0 0 -0.0006 0 -4.16334e-21 -0.0006 0 4.16334e-21 -0.0006 0 4.16334e-21 -0.0006 0 1.38778e-21 -0.0006 0 4.16334e-21 -0.0006 0 2.77556e-21 -0.0006 0 -4.16334e-21 -0.0006 0 1.38778e-21 -0.0006 0 1.38778e-21 -0.0006 0 0 -0.0006 0 -4.16334e-21 -0.0006 0 1.38778e-21 -0.0006 0 1.38778e-21 -0.0006 0 0 -0.0006 0 -4.16334e-21 -0.0006 0 1.38778e-21 -0.0006 0 1.38778e-21 -0.0006 0 0 -0.0006 0 -4.16334e-21 -0.0006 0 1.38778e-21 -0.0006 0 1.38778e-21 -0.0006 0 1.38778e-21 -0.0006 0 1.38778e-21 -0.0006 0 0 -0.0006 0 -4.16334e-21 -0.0006 0 1.38778e-21 -0.0006 0 1.38778e-21 -0.0006 0 0 -0.0006 0 -4.16334e-21 -0.0006 0 1.38778e-21 -0.0006 0 1.38778e-21 -0.0006 0 0 -0.0006 0 -4.16334e-21 -0.0006 0 1.38778e-21 -0.0006 0 1.38778e-21 -0.0006 0 0 -0.0006 0 -4.16334e-21 -0.0006 0 1.38778e-21 -0.0006 0 1.38778e-21 -0.0006 0 1.38778e-21 -0.0006 0 1.38778e-21 -0.0006 0 0 -0.0006 0 -4.16334e-21 -0.0006 0 1.38778e-21 -0.0006 0 1.38778e-21 -0.0006 0 0 -0.0006 0 -4.16334e-21 -0.0006 0 1.38778e-21 -0.0006 0 1.38778e-21 -0.0006 0 0 -0.0006 0 -4.16334e-21 -0.0006 0 1.38778e-21 -0.0006 0 1.38778e-21 -0.0006 0 0 -0.0006 0 -4.16334e-21 -0.0006 0 1.38778e-21 -0.0006 0 1.38778e-21 -0.0006 0 0 -0.0006 0 -4.16334e-21 -0.0006 0 1.38778e-21 -0.0006 0 1.38778e-21 -0.0006 0 1.38778e-21 -0.0006 0 1.38778e-21 -0.0006 0 0 -0.0006 0 -4.16334e-21 -0.0006 0 1.38778e-21 -0.0006 0 1.38778e-21 -0.0006 0 0 -0.0006 0 -4.16334e-21 -0.0006 0 1.38778e-21 -0.0006 0 1.38778e-21 -0.0006 0 0 -0.0006 0 -4.16334e-21 -0.0006 0 1.38778e-21 -0.0006 0 1.38778e-21 -0.0006 0 0 -0.0006 0 -4.16334e-21 -0.0006 0 1.38778e-21 -0.0006 0 1.38778e-21 -0.0006 0 1.38778e-21 -0.0006 0 1.38778e-21 -0.0006 0 0 -0.0006 0 -4.16334e-21 -0.0006 0 1.38778e-21 -0.0006 0 1.38778e-21 -0.0006 0 0 -0.0006 0 -4.16334e-21 -0.0006 0 1.38778e-21 -0.0006 0 1.38778e-21 -0.0006 0 0 -0.0006 0 -4.16334e-21 -0.0006 0 1.38778e-21 -0.0006 0 1.38778e-21 -0.0006 0 0 -0.0006 0 -4.16334e-21 -0.0006 0 1.38778e-21 -0.0006 0 1.38778e-21 -0.0006 0 0 -0.0006 0 -4.16334e-21 -0.0006 0 1.38778e-21 -0.0006 0 1.38778e-21 -0.0006 0 1.38778e-21 -0.0006 0 1.38778e-21 -0.0006 0 0 -0.0006 0 -4.16334e-21 -0.0006 0 -1.38778e-21 -0.0006 0 1.38778e-21 -0.0006 0 -2.77556e-21 -0.0006 0 -4.16334e-21 -0.000604111 0 3.46945e-21 -0.000662576 0 1.38778e-21 -0.000604111 0 3.46945e-21 -0.000662576 0 -5.55112e-21 -0.000537424 0 -4.16334e-21 -0.000537424 0 -5.55112e-21 -0.000537424 0 -4.16334e-21 -0.000595889 0 -1.38778e-21 -0.0006 0 0 -0.0006 0 1.38778e-21 -0.000595889 0 -1.38778e-21 -0.0006 0 1.38778e-21 -0.0006 0 1.38778e-21 -0.000595889 0 -1.38778e-21 -0.0006 0 0 -0.0006 0 -4.16334e-21 -0.0006 0 0 -0.0006 0 1.38778e-21 -0.0006 0 1.38778e-21 -0.0006 0 1.38778e-21 -0.0006 0 0 -0.0006 0 -4.16334e-21 -0.0006 0 0 -0.0006 0 1.38778e-21 -0.0006 0 1.38778e-21 -0.0006 0 1.38778e-21 -0.0006 0 0 -0.0006 0 -4.16334e-21 -0.0006 0 0 -0.0006 0 1.38778e-21 -0.0006 0 1.38778e-21 -0.0006 0 1.38778e-21 -0.0006 0 0 -0.0006 0 -4.16334e-21 -0.0006 0 1.38778e-21 -0.0006 0 0 -0.0006 0 1.38778e-21 -0.0006 0 1.38778e-21 -0.0006 0 1.38778e-21 -0.0006 0 1.38778e-21 -0.0006 0 1.38778e-21 -0.0006 0 0 -0.0006 0 -4.16334e-21 -0.0006 0 0 -0.0006 0 1.38778e-21 -0.0006 0 1.38778e-21 -0.0006 0 1.38778e-21 -0.0006 0 0 -0.0006 0 -4.16334e-21 -0.0006 0 0 -0.0006 0 1.38778e-21 -0.0006 0 1.38778e-21 -0.0006 0 1.38778e-21 -0.0006 0 0 -0.0006 0 -4.16334e-21 -0.0006 0 0 -0.0006 0 1.38778e-21 -0.0006 0 1.38778e-21 -0.0006 0 1.38778e-21 -0.0006 0 0 -0.0006 0 -4.16334e-21 -0.0006 0 0 -0.0006 0 1.38778e-21 -0.0006 0 1.38778e-21 -0.0006 0 1.38778e-21 -0.0006 0 0 -0.0006 0 -4.16334e-21 -0.0006 0 4.16334e-21 -0.0006 0 2.77556e-21 -0.0006 0 1.38778e-21 -0.0006 0 4.16334e-21 -0.0006 0 4.16334e-21 -0.0006 0 1.38778e-21 -0.0006 0 4.16334e-21 -0.0006 0 2.77556e-21 -0.0006 0 -4.16334e-21 -0.0006 0 0 -0.0006 0 1.38778e-21 -0.0006 0 1.38778e-21 -0.0006 0 1.38778e-21 -0.0006 0 0 -0.0006 0 -4.16334e-21 -0.0006 0 0 -0.0006 0 1.38778e-21 -0.0006 0 1.38778e-21 -0.0006 0 1.38778e-21 -0.0006 0 0 -0.0006 0 -4.16334e-21 -0.0006 0 0 -0.0006 0 1.38778e-21 -0.0006 0 1.38778e-21 -0.0006 0 1.38778e-21 -0.0006 0 0 -0.0006 0 -4.16334e-21 -0.0006 0 1.38778e-21 -0.0006 0 0 -0.0006 0 1.38778e-21 -0.0006 0 1.38778e-21 -0.0006 0 1.38778e-21 -0.0006 0 1.38778e-21 -0.0006 0 1.38778e-21 -0.0006 0 0 -0.0006 0 -4.16334e-21 -0.0006 0 0 -0.0006 0 1.38778e-21 -0.0006 0 1.38778e-21 -0.0006 0 1.387